# vtk DataFile Version 2.0
Test for lines
ASCII
DATASET UNSTRUCTURED_GRID

POINTS 16508 double
-0.306348 0.000004 0.000000 
-0.257417 0.000004 0.000000 
-0.216972 0.000004 0.000000 
-0.182880 0.000004 0.000000 
-0.154144 0.000004 0.000000 
-0.129922 0.000004 0.000000 
-0.109505 0.000004 0.000000 
-0.092296 0.000004 0.000000 
-0.077790 0.000004 0.000000 
-0.065562 0.000004 0.000000 
-0.055256 0.000004 0.000000 
-0.046569 0.000004 0.000000 
-0.039246 0.000004 0.000000 
-0.033073 0.000004 0.000000 
-0.027871 0.000004 0.000000 
-0.023485 0.000004 0.000000 
-0.019789 0.000004 0.000000 
-0.016673 0.000004 0.000000 
-0.014047 0.000004 0.000000 
-0.011833 0.000004 0.000000 
-0.009967 0.000004 0.000000 
-0.008394 0.000004 0.000000 
-0.007068 0.000004 0.000000 
-0.005951 0.000004 0.000000 
-0.005009 0.000004 0.000000 
-0.004215 0.000004 0.000000 
-0.003545 0.000004 0.000000 
-0.002981 0.000004 0.000000 
-0.002506 0.000004 0.000000 
-0.002105 0.000004 0.000000 
-0.001767 0.000004 0.000000 
-0.001482 0.000004 0.000000 
-0.001242 0.000004 0.000000 
-0.001040 0.000004 0.000000 
-0.000869 0.000004 0.000000 
-0.000726 0.000004 0.000000 
-0.000604 0.000004 0.000000 
-0.000502 0.000004 0.000000 
-0.000416 0.000004 0.000000 
-0.000344 0.000004 0.000000 
-0.000282 0.000004 0.000000 
-0.000231 0.000004 0.000000 
-0.000187 0.000004 0.000000 
-0.000151 0.000004 0.000000 
-0.000120 0.000004 0.000000 
-0.000094 0.000004 0.000000 
-0.000072 0.000004 0.000000 
-0.000053 0.000004 0.000000 
-0.000038 0.000004 0.000000 
-0.000025 0.000004 0.000000 
-0.000014 0.000004 0.000000 
-0.000004 0.000004 0.000000 
0.000004 0.000004 0.000000 
0.000013 0.000004 0.000000 
0.000024 0.000004 0.000000 
0.000037 0.000004 0.000000 
0.000051 0.000004 0.000000 
0.000069 0.000004 0.000000 
0.000089 0.000004 0.000000 
0.000112 0.000004 0.000000 
0.000139 0.000004 0.000000 
0.000171 0.000004 0.000000 
0.000209 0.000004 0.000000 
0.000253 0.000004 0.000000 
0.000304 0.000004 0.000000 
0.000363 0.000004 0.000000 
0.000433 0.000004 0.000000 
0.000514 0.000004 0.000000 
0.000610 0.000004 0.000000 
0.000721 0.000004 0.000000 
0.000851 0.000004 0.000000 
0.001003 0.000004 0.000000 
0.001180 0.000004 0.000000 
0.001387 0.000004 0.000000 
0.001630 0.000004 0.000000 
0.001913 0.000004 0.000000 
0.002243 0.000004 0.000000 
0.002630 0.000004 0.000000 
0.003082 0.000004 0.000000 
0.003609 0.000004 0.000000 
0.004226 0.000004 0.000000 
0.004947 0.000004 0.000000 
0.005789 0.000004 0.000000 
0.006773 0.000004 0.000000 
0.007922 0.000004 0.000000 
0.009266 0.000004 0.000000 
0.010836 0.000004 0.000000 
0.012670 0.000004 0.000000 
0.014813 0.000004 0.000000 
0.017318 0.000004 0.000000 
0.020245 0.000004 0.000000 
0.023665 0.000004 0.000000 
0.027661 0.000004 0.000000 
0.032331 0.000004 0.000000 
0.037787 0.000004 0.000000 
0.044163 0.000004 0.000000 
0.051613 0.000004 0.000000 
0.060319 0.000004 0.000000 
0.070492 0.000004 0.000000 
0.082379 0.000004 0.000000 
0.096269 0.000004 0.000000 
0.112500 0.000004 0.000000 
0.131466 0.000004 0.000000 
0.153628 0.000004 0.000000 
0.179524 0.000004 0.000000 
0.209784 0.000004 0.000000 
0.245143 0.000004 0.000000 
0.286460 0.000004 0.000000 
0.334740 0.000004 0.000000 
0.391155 0.000004 0.000000 
0.457077 0.000004 0.000000 
0.534107 0.000004 0.000000 
0.624117 0.000004 0.000000 
0.729295 0.000004 0.000000 
0.852197 0.000004 0.000000 
0.995809 0.000004 0.000000 
1.163620 0.000004 0.000000 
1.359709 0.000004 0.000000 
1.588842 0.000004 0.000000 
1.856155 0.000004 0.000000 
-0.306348 0.000009 0.000000 
-0.257417 0.000009 0.000000 
-0.216972 0.000009 0.000000 
-0.182880 0.000009 0.000000 
-0.154144 0.000009 0.000000 
-0.129922 0.000009 0.000000 
-0.109505 0.000009 0.000000 
-0.092296 0.000009 0.000000 
-0.077790 0.000009 0.000000 
-0.065562 0.000009 0.000000 
-0.055256 0.000009 0.000000 
-0.046569 0.000009 0.000000 
-0.039246 0.000009 0.000000 
-0.033073 0.000009 0.000000 
-0.027871 0.000009 0.000000 
-0.023485 0.000009 0.000000 
-0.019789 0.000009 0.000000 
-0.016673 0.000009 0.000000 
-0.014047 0.000009 0.000000 
-0.011833 0.000009 0.000000 
-0.009967 0.000009 0.000000 
-0.008394 0.000009 0.000000 
-0.007068 0.000009 0.000000 
-0.005951 0.000009 0.000000 
-0.005009 0.000009 0.000000 
-0.004215 0.000009 0.000000 
-0.003545 0.000009 0.000000 
-0.002981 0.000009 0.000000 
-0.002506 0.000009 0.000000 
-0.002105 0.000009 0.000000 
-0.001767 0.000009 0.000000 
-0.001482 0.000009 0.000000 
-0.001242 0.000009 0.000000 
-0.001040 0.000009 0.000000 
-0.000869 0.000009 0.000000 
-0.000726 0.000009 0.000000 
-0.000604 0.000009 0.000000 
-0.000502 0.000009 0.000000 
-0.000416 0.000009 0.000000 
-0.000344 0.000009 0.000000 
-0.000282 0.000009 0.000000 
-0.000231 0.000009 0.000000 
-0.000187 0.000009 0.000000 
-0.000151 0.000009 0.000000 
-0.000120 0.000009 0.000000 
-0.000094 0.000009 0.000000 
-0.000072 0.000009 0.000000 
-0.000053 0.000009 0.000000 
-0.000038 0.000009 0.000000 
-0.000025 0.000009 0.000000 
-0.000014 0.000009 0.000000 
-0.000004 0.000009 0.000000 
0.000004 0.000009 0.000000 
0.000013 0.000009 0.000000 
0.000024 0.000009 0.000000 
0.000037 0.000009 0.000000 
0.000051 0.000009 0.000000 
0.000069 0.000009 0.000000 
0.000089 0.000009 0.000000 
0.000112 0.000009 0.000000 
0.000139 0.000009 0.000000 
0.000171 0.000009 0.000000 
0.000209 0.000009 0.000000 
0.000253 0.000009 0.000000 
0.000304 0.000009 0.000000 
0.000363 0.000009 0.000000 
0.000433 0.000009 0.000000 
0.000514 0.000009 0.000000 
0.000610 0.000009 0.000000 
0.000721 0.000009 0.000000 
0.000851 0.000009 0.000000 
0.001003 0.000009 0.000000 
0.001180 0.000009 0.000000 
0.001387 0.000009 0.000000 
0.001630 0.000009 0.000000 
0.001913 0.000009 0.000000 
0.002243 0.000009 0.000000 
0.002630 0.000009 0.000000 
0.003082 0.000009 0.000000 
0.003609 0.000009 0.000000 
0.004226 0.000009 0.000000 
0.004947 0.000009 0.000000 
0.005789 0.000009 0.000000 
0.006773 0.000009 0.000000 
0.007922 0.000009 0.000000 
0.009266 0.000009 0.000000 
0.010836 0.000009 0.000000 
0.012670 0.000009 0.000000 
0.014813 0.000009 0.000000 
0.017318 0.000009 0.000000 
0.020245 0.000009 0.000000 
0.023665 0.000009 0.000000 
0.027661 0.000009 0.000000 
0.032331 0.000009 0.000000 
0.037787 0.000009 0.000000 
0.044163 0.000009 0.000000 
0.051613 0.000009 0.000000 
0.060319 0.000009 0.000000 
0.070492 0.000009 0.000000 
0.082379 0.000009 0.000000 
0.096269 0.000009 0.000000 
0.112500 0.000009 0.000000 
0.131466 0.000009 0.000000 
0.153628 0.000009 0.000000 
0.179524 0.000009 0.000000 
0.209784 0.000009 0.000000 
0.245143 0.000009 0.000000 
0.286460 0.000009 0.000000 
0.334740 0.000009 0.000000 
0.391155 0.000009 0.000000 
0.457077 0.000009 0.000000 
0.534107 0.000009 0.000000 
0.624117 0.000009 0.000000 
0.729295 0.000009 0.000000 
0.852197 0.000009 0.000000 
0.995809 0.000009 0.000000 
1.163620 0.000009 0.000000 
1.359709 0.000009 0.000000 
1.588842 0.000009 0.000000 
1.856155 0.000009 0.000000 
-0.306348 0.000015 0.000000 
-0.257417 0.000015 0.000000 
-0.216972 0.000015 0.000000 
-0.182880 0.000015 0.000000 
-0.154144 0.000015 0.000000 
-0.129922 0.000015 0.000000 
-0.109505 0.000015 0.000000 
-0.092296 0.000015 0.000000 
-0.077790 0.000015 0.000000 
-0.065562 0.000015 0.000000 
-0.055256 0.000015 0.000000 
-0.046569 0.000015 0.000000 
-0.039246 0.000015 0.000000 
-0.033073 0.000015 0.000000 
-0.027871 0.000015 0.000000 
-0.023485 0.000015 0.000000 
-0.019789 0.000015 0.000000 
-0.016673 0.000015 0.000000 
-0.014047 0.000015 0.000000 
-0.011833 0.000015 0.000000 
-0.009967 0.000015 0.000000 
-0.008394 0.000015 0.000000 
-0.007068 0.000015 0.000000 
-0.005951 0.000015 0.000000 
-0.005009 0.000015 0.000000 
-0.004215 0.000015 0.000000 
-0.003545 0.000015 0.000000 
-0.002981 0.000015 0.000000 
-0.002506 0.000015 0.000000 
-0.002105 0.000015 0.000000 
-0.001767 0.000015 0.000000 
-0.001482 0.000015 0.000000 
-0.001242 0.000015 0.000000 
-0.001040 0.000015 0.000000 
-0.000869 0.000015 0.000000 
-0.000726 0.000015 0.000000 
-0.000604 0.000015 0.000000 
-0.000502 0.000015 0.000000 
-0.000416 0.000015 0.000000 
-0.000344 0.000015 0.000000 
-0.000282 0.000015 0.000000 
-0.000231 0.000015 0.000000 
-0.000187 0.000015 0.000000 
-0.000151 0.000015 0.000000 
-0.000120 0.000015 0.000000 
-0.000094 0.000015 0.000000 
-0.000072 0.000015 0.000000 
-0.000053 0.000015 0.000000 
-0.000038 0.000015 0.000000 
-0.000025 0.000015 0.000000 
-0.000014 0.000015 0.000000 
-0.000004 0.000015 0.000000 
0.000004 0.000015 0.000000 
0.000013 0.000015 0.000000 
0.000024 0.000015 0.000000 
0.000037 0.000015 0.000000 
0.000051 0.000015 0.000000 
0.000069 0.000015 0.000000 
0.000089 0.000015 0.000000 
0.000112 0.000015 0.000000 
0.000139 0.000015 0.000000 
0.000171 0.000015 0.000000 
0.000209 0.000015 0.000000 
0.000253 0.000015 0.000000 
0.000304 0.000015 0.000000 
0.000363 0.000015 0.000000 
0.000433 0.000015 0.000000 
0.000514 0.000015 0.000000 
0.000610 0.000015 0.000000 
0.000721 0.000015 0.000000 
0.000851 0.000015 0.000000 
0.001003 0.000015 0.000000 
0.001180 0.000015 0.000000 
0.001387 0.000015 0.000000 
0.001630 0.000015 0.000000 
0.001913 0.000015 0.000000 
0.002243 0.000015 0.000000 
0.002630 0.000015 0.000000 
0.003082 0.000015 0.000000 
0.003609 0.000015 0.000000 
0.004226 0.000015 0.000000 
0.004947 0.000015 0.000000 
0.005789 0.000015 0.000000 
0.006773 0.000015 0.000000 
0.007922 0.000015 0.000000 
0.009266 0.000015 0.000000 
0.010836 0.000015 0.000000 
0.012670 0.000015 0.000000 
0.014813 0.000015 0.000000 
0.017318 0.000015 0.000000 
0.020245 0.000015 0.000000 
0.023665 0.000015 0.000000 
0.027661 0.000015 0.000000 
0.032331 0.000015 0.000000 
0.037787 0.000015 0.000000 
0.044163 0.000015 0.000000 
0.051613 0.000015 0.000000 
0.060319 0.000015 0.000000 
0.070492 0.000015 0.000000 
0.082379 0.000015 0.000000 
0.096269 0.000015 0.000000 
0.112500 0.000015 0.000000 
0.131466 0.000015 0.000000 
0.153628 0.000015 0.000000 
0.179524 0.000015 0.000000 
0.209784 0.000015 0.000000 
0.245143 0.000015 0.000000 
0.286460 0.000015 0.000000 
[...]
POINT_DATA 16508
SCALARS face_weight double
LOOKUP_TABLE default
273023889111.354889
273023889111.354828
273023889111.354858
273023889111.354889
273023889111.354858
273023889111.354858
273023889111.354889
273023889111.354858
273023889111.354858
273023889111.354889
273023889111.354889
273023889111.354797
273023889111.354858
273023889111.354889
273023889111.354889
273023889111.354858
273023889111.354889
273023889111.354858
273023889111.354858
273023889111.354828
273023889111.354858
273023889111.354858
273023889111.354889
273023889111.354828
273023889111.354828
273023889111.354889
273023889111.354858
273023889111.354858
273023889111.354858
273023889111.354889
273023889111.354858
273023889111.354858
273023889111.354858
273023889111.354828
273023889111.354858
273023889111.354858
273023889111.354828
273023889111.354858
273023889111.354858
273023889111.354828
273023889111.354889
273023889111.354858
273023889111.354889
273023889111.354858
273023889111.354858
273023889111.354889
273023889111.354889
273023889111.354828
273023889111.354858
273023889111.354858
273023889111.354858
273023889111.354858
273023889111.354858
273023889111.354828
273023889111.354858
273023889111.354828
273023889111.354889
273023889111.354858
273023889111.354858
273023889111.354889
273023889111.354858
273023889111.354858
273023889111.354858
273023889111.354858
273023889111.354858
273023889111.354889
273023889111.354858
273023889111.354828
273023889111.354889
273023889111.354858
273023889111.354858
273023889111.354858
273023889111.354858
273023889111.354828
273023889111.354858
273023889111.354828
273023889111.354858
273023889111.354858
273023889111.354828
273023889111.354858
273023889111.354858
273023889111.354858
273023889111.354828
273023889111.354919
273023889111.354858
273023889111.354858
273023889111.354889
273023889111.354858
273023889111.354828
273023889111.354889
273023889111.354858
273023889111.354828
273023889111.354828
273023889111.354797
273023889111.354858
273023889111.354828
273023889111.354889
273023889111.354889
273023889111.354858
273023889111.354858
273023889111.354828
273023889111.354889
273023889111.354858
273023889111.354828
273023889111.354858
273023889111.354889
273023889111.354858
273023889111.354828
273023889111.354828
273023889111.354858
273023889111.354828
273023889111.354828
273023889111.354858
273023889111.354889
273023889111.354858
273023889111.354889
273023889111.354858
273023889111.354828
273023889111.354828
273023889111.354858
199956860337.989685
199956860337.989716
199956860337.989716
199956860337.989716
199956860337.989716
199956860337.989685
199956860337.989746
199956860337.989716
199956860337.989716
199956860337.989685
199956860337.989716
199956860337.989746
199956860337.989746
199956860337.989716
199956860337.989716
199956860337.989716
199956860337.989716
199956860337.989716
199956860337.989685
199956860337.989685
199956860337.989716
199956860337.989716
199956860337.989746
199956860337.989685
199956860337.989716
199956860337.989716
199956860337.989746
199956860337.989685
199956860337.989685
199956860337.989716
199956860337.989716
199956860337.989685
199956860337.989685
199956860337.989716
199956860337.989716
199956860337.989685
199956860337.989716
199956860337.989716
199956860337.989716
199956860337.989716
199956860337.989685
199956860337.989716
199956860337.989716
199956860337.989716
199956860337.989716
199956860337.989746
199956860337.989716
199956860337.989716
199956860337.989716
199956860337.989716
199956860337.989746
199956860337.989716
199956860337.989685
199956860337.989716
199956860337.989716
199956860337.989716
199956860337.989716
199956860337.989716
199956860337.989716
199956860337.989746
199956860337.989716
199956860337.989716
199956860337.989716
199956860337.989716
199956860337.989716
199956860337.989716
199956860337.989685
199956860337.989685
199956860337.989716
199956860337.989716
199956860337.989716
199956860337.989716
199956860337.989716
199956860337.989716
199956860337.989746
199956860337.989685
199956860337.989716
199956860337.989716
199956860337.989746
199956860337.989716
199956860337.989685
199956860337.989746
199956860337.989685
199956860337.989716
199956860337.989716
199956860337.989746
199956860337.989716
199956860337.989716
199956860337.989685
199956860337.989716
199956860337.989685
199956860337.989685
199956860337.989716
199956860337.989716
199956860337.989716
199956860337.989685
199956860337.989685
199956860337.989716
199956860337.989716
199956860337.989716
199956860337.989685
199956860337.989716
199956860337.989716
199956860337.989716
199956860337.989716
199956860337.989716
199956860337.989685
199956860337.989716
199956860337.989716
199956860337.989746
199956860337.989685
199956860337.989685
199956860337.989746
199956860337.989685
199956860337.989685
199956860337.989716
199956860337.989746
199956860337.989685
199956860337.989716
199956860337.989685
146444132358.461761
146444132358.461761
146444132358.461761
146444132358.461761
146444132358.461761
146444132358.461761
146444132358.461761
146444132358.461761
146444132358.461761
146444132358.461761
146444132358.461731
146444132358.461731
146444132358.461792
146444132358.461761
146444132358.461761
146444132358.461761
146444132358.461731
146444132358.461792
146444132358.461731
146444132358.461761
146444132358.461761
146444132358.461761
146444132358.461761
146444132358.461761
146444132358.461792
146444132358.461761
146444132358.461792
146444132358.461731
146444132358.461761
146444132358.461761
146444132358.461761
146444132358.461761
146444132358.461761
146444132358.461761
146444132358.461761
146444132358.461761
146444132358.461731
146444132358.461761
146444132358.461761
146444132358.461731
146444132358.461761
146444132358.461761
146444132358.461761
146444132358.461761
146444132358.461761
146444132358.461792
146444132358.461792
146444132358.461761
146444132358.461792
146444132358.461761
146444132358.461761
146444132358.461761
146444132358.461761
146444132358.461731
146444132358.461761
146444132358.461761
146444132358.461761
146444132358.461761
146444132358.461761
146444132358.461761
146444132358.461761
146444132358.461761
146444132358.461792
146444132358.461761
146444132358.461761
146444132358.461761
146444132358.461761
146444132358.461731
146444132358.461761
146444132358.461761
146444132358.461792
146444132358.461731
146444132358.461792
146444132358.461761
146444132358.461731
146444132358.461761
146444132358.461761
146444132358.461731
146444132358.461761
146444132358.461761
146444132358.461761
146444132358.461731
146444132358.461731
146444132358.461731
146444132358.461761
146444132358.461761
146444132358.461761
146444132358.461761
146444132358.461761
146444132358.461761
146444132358.461761
146444132358.461761
146444132358.461761
146444132358.461761
146444132358.461761
146444132358.461761
146444132358.461761
146444132358.461761
146444132358.461731
146444132358.461761
146444132358.461761
146444132358.461761
146444132358.461761
146444132358.461761
146444132358.461731
146444132358.461761
146444132358.461761
146444132358.461761
146444132358.461761
146444132358.461761
146444132358.461731
146444132358.461761
146444132358.461761
146444132358.461761
146444132358.461761
146444132358.461761
146444132358.461792
146444132358.461761
146444132358.461731
146444132358.461761
107252550278.316559
107252550278.316559
107252550278.316559
107252550278.316544
107252550278.316544
107252550278.316544
107252550278.316544
107252550278.316559
107252550278.316544
107252550278.316528
107252550278.316559
107252550278.316544
107252550278.316574
107252550278.316559
107252550278.316528
107252550278.316544
107252550278.316544
107252550278.316574
107252550278.316559
107252550278.316559
107252550278.316544
107252550278.316559
107252550278.316544
107252550278.316559
107252550278.316559
107252550278.316559
107252550278.316559
107252550278.316559
107252550278.316559
107252550278.316559
107252550278.316544
107252550278.316544
107252550278.316528
107252550278.316574
107252550278.316574
107252550278.316544
107252550278.316559
107252550278.316559
107252550278.316559
107252550278.316544
107252550278.316544
107252550278.316559
107252550278.316544
107252550278.316544
107252550278.316559
107252550278.316574
107252550278.316559
107252550278.316559
107252550278.316559
107252550278.316544
107252550278.316544
107252550278.316544
107252550278.316544
107252550278.316528
107252550278.316544
107252550278.316544
107252550278.316544
107252550278.316559
107252550278.316544
107252550278.316574
107252550278.316559
107252550278.316544
107252550278.316544
107252550278.316528
107252550278.316544
107252550278.316544
107252550278.316559
107252550278.316528
107252550278.316544
107252550278.316544
107252550278.316574
107252550278.316544
107252550278.316559
107252550278.316544
107252550278.316544
107252550278.316528
107252550278.316544
107252550278.316544
107252550278.316544
107252550278.316544
107252550278.316544
107252550278.316544
107252550278.316544
107252550278.316544
107252550278.316559
107252550278.316574
107252550278.316559
107252550278.316559
107252550278.316559
107252550278.316559
107252550278.316544
107252550278.316544
107252550278.316544
107252550278.316544
107252550278.316559
107252550278.316544
107252550278.316544
107252550278.316544
107252550278.316544
107252550278.316574
107252550278.316528
107252550278.316544
107252550278.316528
107252550278.316544
107252550278.316544
107252550278.316544
107252550278.316574
107252550278.316544
107252550278.316544
107252550278.316574
107252550278.316559
107252550278.316544
107252550278.316559
107252550278.316544
107252550278.316544
107252550278.316559
107252550278.316574
107252550278.316544
107252550278.316544
107252550278.316544
78549471052.186905
78549471052.186920
78549471052.186905
78549471052.186890
78549471052.186905
78549471052.186905
78549471052.186905
78549471052.186905
78549471052.186905
78549471052.186905
78549471052.186905
78549471052.186905
78549471052.186905
78549471052.186905
78549471052.186890
78549471052.186905
78549471052.186905
78549471052.186920
78549471052.186905
78549471052.186905
78549471052.186905
78549471052.186890
78549471052.186905
78549471052.186905
78549471052.186920
78549471052.186905
78549471052.186920
78549471052.186905
78549471052.186905
78549471052.186890
78549471052.186905
78549471052.186920
78549471052.186905
78549471052.186905
78549471052.186905
78549471052.186905
78549471052.186890
78549471052.186905
78549471052.186905
78549471052.186905
78549471052.186905
78549471052.186905
78549471052.186905
78549471052.186920
78549471052.186905
78549471052.186920
78549471052.186920
78549471052.186920
78549471052.186920
78549471052.186890
78549471052.186905
78549471052.186905
78549471052.186905
78549471052.186905
78549471052.186905
78549471052.186905
78549471052.186905
78549471052.186905
78549471052.186920
78549471052.186920
78549471052.186890
78549471052.186905
78549471052.186905
78549471052.186905
78549471052.186905
78549471052.186905
78549471052.186905
78549471052.186905
78549471052.186905
78549471052.186905
78549471052.186920
78549471052.186905
78549471052.186905
78549471052.186905
78549471052.186920
78549471052.186905
78549471052.186905
78549471052.186905
78549471052.186890
78549471052.186905
78549471052.186905
78549471052.186890
78549471052.186920
78549471052.186905
78549471052.186905
78549471052.186920
78549471052.186905
78549471052.186905
78549471052.186905
78549471052.186905
78549471052.186905
78549471052.186905
78549471052.186905
78549471052.186905
78549471052.186920
78549471052.186890
78549471052.186920
78549471052.186905
78549471052.186890
78549471052.186920
78549471052.186905
78549471052.186890
78549471052.186905
78549471052.186905
78549471052.186905
78549471052.186905
78549471052.186905
78549471052.186905
78549471052.186905
78549471052.186920
78549471052.186905
78549471052.186905
78549471052.186920
78549471052.186905
78549471052.186905
78549471052.186905
78549471052.186920
78549471052.186920
78549471052.186890
78549471052.186905
57527945968.681595
57527945968.681602
57527945968.681595
57527945968.681610
57527945968.681602
57527945968.681602
57527945968.681602
57527945968.681610
57527945968.681595
57527945968.681602
57527945968.681602
57527945968.681602
57527945968.681610
57527945968.681602
57527945968.681602
57527945968.681602
57527945968.681602
57527945968.681595
57527945968.681610
57527945968.681595
57527945968.681602
57527945968.681602
57527945968.681595
57527945968.681610
57527945968.681610
57527945968.681610
57527945968.681602
57527945968.681602
57527945968.681595
57527945968.681602
57527945968.681610
57527945968.681602
57527945968.681602
57527945968.681602
57527945968.681595
57527945968.681610
57527945968.681610
57527945968.681602
57527945968.681602
57527945968.681602
57527945968.681602
57527945968.681602
57527945968.681595
57527945968.681602
57527945968.681610
57527945968.681610
57527945968.681602
57527945968.681602
57527945968.681595
57527945968.681595
57527945968.681595
57527945968.681595
57527945968.681610
57527945968.681602
57527945968.681595
57527945968.681610
57527945968.681602
57527945968.681602
57527945968.681602
57527945968.681610
57527945968.681595
57527945968.681602
57527945968.681595
57527945968.681602
57527945968.681602
57527945968.681602
57527945968.681610
57527945968.681602
57527945968.681595
57527945968.681602
57527945968.681602
57527945968.681595
57527945968.681595
57527945968.681602
57527945968.681602
57527945968.681602
57527945968.681595
57527945968.681610
57527945968.681602
57527945968.681610
57527945968.681602
57527945968.681595
57527945968.681602
57527945968.681602
57527945968.681602
57527945968.681602
57527945968.681602
57527945968.681602
57527945968.681602
57527945968.681610
57527945968.681602
57527945968.681610
57527945968.681595
57527945968.681602
57527945968.681602
57527945968.681602
57527945968.681602
57527945968.681602
57527945968.681610
57527945968.681595
57527945968.681602
57527945968.681610
57527945968.681602
57527945968.681602
57527945968.681602
57527945968.681602
57527945968.681602
57527945968.681602
57527945968.681602
57527945968.681602
57527945968.681602
57527945968.681610
57527945968.681595
57527945968.681610
57527945968.681610
57527945968.681602
57527945968.681602
57527945968.681602
57527945968.681602
57527945968.681595
42132238657.429192
42132238657.429192
42132238657.429192
42132238657.429192
42132238657.429199
42132238657.429184
42132238657.429192
42132238657.429192
42132238657.429192
42132238657.429192
42132238657.429199
42132238657.429192
42132238657.429199
42132238657.429192
42132238657.429192
42132238657.429192
42132238657.429192
42132238657.429199
42132238657.429192
42132238657.429192
42132238657.429192
42132238657.429192
42132238657.429192
42132238657.429192
42132238657.429199
42132238657.429184
42132238657.429199
42132238657.429192
42132238657.429192
42132238657.429192
42132238657.429192
42132238657.429192
42132238657.429184
42132238657.429184
42132238657.429192
42132238657.429192
42132238657.429199
42132238657.429192
42132238657.429192
42132238657.429192
42132238657.429192
42132238657.429192
42132238657.429192
42132238657.429192
42132238657.429192
42132238657.429192
42132238657.429199
42132238657.429192
42132238657.429199
42132238657.429192
42132238657.429192
42132238657.429199
42132238657.429184
42132238657.429192
42132238657.429192
42132238657.429184
42132238657.429192
42132238657.429192
42132238657.429184
42132238657.429199
42132238657.429192
42132238657.429184
42132238657.429192
42132238657.429184
42132238657.429184
42132238657.429192
42132238657.429192
42132238657.429184
42132238657.429192
42132238657.429192
42132238657.429207
42132238657.429184
42132238657.429199
42132238657.429184
42132238657.429192
42132238657.429192
42132238657.429184
42132238657.429192
42132238657.429192
42132238657.429192
42132238657.429192
42132238657.429184
42132238657.429199
42132238657.429199
42132238657.429199
42132238657.429192
42132238657.429192
42132238657.429184
42132238657.429192
42132238657.429192
42132238657.429192
42132238657.429192
42132238657.429184
42132238657.429192
42132238657.429199
42132238657.429192
42132238657.429192
42132238657.429192
42132238657.429192
42132238657.429199
42132238657.429192
42132238657.429184
42132238657.429192
42132238657.429192
42132238657.429184
42132238657.429199
42132238657.429184
42132238657.429192
42132238657.429192
42132238657.429199
42132238657.429192
42132238657.429184
42132238657.429199
42132238657.429192
42132238657.429192
42132238657.429192
42132238657.429199
42132238657.429192
42132238657.429192
42132238657.429184
30856753414.594254
30856753414.594250
30856753414.594254
30856753414.594254
30856753414.594254
30856753414.594254
30856753414.594254
30856753414.594254
30856753414.594250
30856753414.594254
30856753414.594254
30856753414.594257
30856753414.594250
30856753414.594246
30856753414.594257
30856753414.594254
30856753414.594254
30856753414.594254
30856753414.594250
30856753414.594250
30856753414.594254
30856753414.594250
30856753414.594254
30856753414.594254
30856753414.594257
30856753414.594250
30856753414.594257
30856753414.594250
30856753414.594246
30856753414.594257
30856753414.594250
30856753414.594250
30856753414.594250
30856753414.594250
30856753414.594254
30856753414.594254
30856753414.594246
30856753414.594250
30856753414.594254
30856753414.594250
30856753414.594254
30856753414.594257
30856753414.594254
30856753414.594254
30856753414.594254
30856753414.594257
30856753414.594265
30856753414.594250
30856753414.594257
30856753414.594254
30856753414.594254
30856753414.594250
30856753414.594250
30856753414.594250
30856753414.594254
30856753414.594250
30856753414.594254
30856753414.594246
30856753414.594254
30856753414.594261
30856753414.594254
30856753414.594250
30856753414.594246
30856753414.594254
30856753414.594254
30856753414.594257
30856753414.594250
30856753414.594246
30856753414.594250
30856753414.594254
30856753414.594261
30856753414.594254
30856753414.594257
30856753414.594250
30856753414.594254
30856753414.594250
30856753414.594254
30856753414.594254
30856753414.594254
30856753414.594254
30856753414.594254
30856753414.594257
30856753414.594250
30856753414.594246
30856753414.594250
30856753414.594257
30856753414.594257
30856753414.594250
30856753414.594250
30856753414.594254
30856753414.594250
30856753414.594254
30856753414.594254
30856753414.594254
30856753414.594254
30856753414.594254
30856753414.594254
30856753414.594254
30856753414.594254
30856753414.594250
30856753414.594250
30856753414.594254
30856753414.594250
30856753414.594257
30856753414.594250
30856753414.594254
30856753414.594250
30856753414.594254
30856753414.594250
30856753414.594257
30856753414.594257
30856753414.594257
30856753414.594261
30856753414.594254
30856753414.594250
30856753414.594254
30856753414.594257
30856753414.594254
30856753414.594250
30856753414.594254
22598824150.062622
22598824150.062622
22598824150.062622
22598824150.062626
22598824150.062622
22598824150.062626
22598824150.062622
22598824150.062622
22598824150.062622
22598824150.062626
22598824150.062622
22598824150.062626
22598824150.062626
22598824150.062626
22598824150.062626
22598824150.062622
22598824150.062622
22598824150.062630
22598824150.062622
22598824150.062626
22598824150.062622
22598824150.062622
22598824150.062622
22598824150.062630
22598824150.062630
22598824150.062626
22598824150.062630
22598824150.062622
22598824150.062626
22598824150.062626
22598824150.062626
22598824150.062622
22598824150.062622
22598824150.062622
22598824150.062622
22598824150.062626
22598824150.062622
22598824150.062622
22598824150.062626
22598824150.062622
22598824150.062626
22598824150.062626
22598824150.062622
22598824150.062626
22598824150.062626
22598824150.062630
22598824150.062626
22598824150.062622
22598824150.062630
22598824150.062622
22598824150.062622
22598824150.062626
22598824150.062622
22598824150.062626
22598824150.062622
22598824150.062622
22598824150.062626
22598824150.062622
22598824150.062622
22598824150.062630
22598824150.062622
22598824150.062622
22598824150.062626