# vtk DataFile Version 2.0
Test for lines
ASCII
DATASET UNSTRUCTURED_GRID

POINTS 4174 double
-0.284402 0.000009 0.000000 
-0.201379 0.000009 0.000000 
-0.143066 0.000009 0.000000 
-0.101634 0.000009 0.000000 
-0.072197 0.000009 0.000000 
-0.051282 0.000009 0.000000 
-0.036423 0.000009 0.000000 
-0.025865 0.000009 0.000000 
-0.018364 0.000009 0.000000 
-0.013034 0.000009 0.000000 
-0.009247 0.000009 0.000000 
-0.006557 0.000009 0.000000 
-0.004645 0.000009 0.000000 
-0.003287 0.000009 0.000000 
-0.002322 0.000009 0.000000 
-0.001637 0.000009 0.000000 
-0.001150 0.000009 0.000000 
-0.000804 0.000009 0.000000 
-0.000558 0.000009 0.000000 
-0.000383 0.000009 0.000000 
-0.000259 0.000009 0.000000 
-0.000171 0.000009 0.000000 
-0.000108 0.000009 0.000000 
-0.000063 0.000009 0.000000 
-0.000032 0.000009 0.000000 
-0.000009 0.000009 0.000000 
0.000009 0.000009 0.000000 
0.000031 0.000009 0.000000 
0.000061 0.000009 0.000000 
0.000101 0.000009 0.000000 
0.000157 0.000009 0.000000 
0.000232 0.000009 0.000000 
0.000336 0.000009 0.000000 
0.000477 0.000009 0.000000 
0.000669 0.000009 0.000000 
0.000932 0.000009 0.000000 
0.001292 0.000009 0.000000 
0.001782 0.000009 0.000000 
0.002452 0.000009 0.000000 
0.003366 0.000009 0.000000 
0.004614 0.000009 0.000000 
0.006319 0.000009 0.000000 
0.008646 0.000009 0.000000 
0.011824 0.000009 0.000000 
0.016163 0.000009 0.000000 
0.022088 0.000009 0.000000 
0.030177 0.000009 0.000000 
0.041223 0.000009 0.000000 
0.056305 0.000009 0.000000 
0.076898 0.000009 0.000000 
0.105015 0.000009 0.000000 
0.143408 0.000009 0.000000 
0.195829 0.000009 0.000000 
0.267407 0.000009 0.000000 
0.365139 0.000009 0.000000 
0.498585 0.000009 0.000000 
0.680793 0.000009 0.000000 
0.929583 0.000009 0.000000 
1.269284 0.000009 0.000000 
1.732686 0.000009 0.000000 
-0.284402 0.000022 0.000000 
-0.201379 0.000022 0.000000 
-0.143066 0.000022 0.000000 
-0.101634 0.000022 0.000000 
-0.072197 0.000022 0.000000 
-0.051282 0.000022 0.000000 
-0.036423 0.000022 0.000000 
-0.025865 0.000022 0.000000 
-0.018364 0.000022 0.000000 
-0.013034 0.000022 0.000000 
-0.009247 0.000022 0.000000 
-0.006557 0.000022 0.000000 
-0.004645 0.000022 0.000000 
-0.003287 0.000022 0.000000 
-0.002322 0.000022 0.000000 
-0.001637 0.000022 0.000000 
-0.001150 0.000022 0.000000 
-0.000804 0.000022 0.000000 
-0.000558 0.000022 0.000000 
-0.000383 0.000022 0.000000 
-0.000259 0.000022 0.000000 
-0.000171 0.000022 0.000000 
-0.000108 0.000022 0.000000 
-0.000063 0.000022 0.000000 
-0.000032 0.000022 0.000000 
-0.000009 0.000022 0.000000 
0.000009 0.000022 0.000000 
0.000031 0.000022 0.000000 
0.000061 0.000022 0.000000 
0.000101 0.000022 0.000000 
0.000157 0.000022 0.000000 
0.000232 0.000022 0.000000 
0.000336 0.000022 0.000000 
0.000477 0.000022 0.000000 
0.000669 0.000022 0.000000 
0.000932 0.000022 0.000000 
0.001292 0.000022 0.000000 
0.001782 0.000022 0.000000 
0.002452 0.000022 0.000000 
0.003366 0.000022 0.000000 
0.004614 0.000022 0.000000 
0.006319 0.000022 0.000000 
0.008646 0.000022 0.000000 
0.011824 0.000022 0.000000 
0.016163 0.000022 0.000000 
0.022088 0.000022 0.000000 
0.030177 0.000022 0.000000 
0.041223 0.000022 0.000000 
0.056305 0.000022 0.000000 
0.076898 0.000022 0.000000 
0.105015 0.000022 0.000000 
0.143408 0.000022 0.000000 
0.195829 0.000022 0.000000 
0.267407 0.000022 0.000000 
0.365139 0.000022 0.000000 
0.498585 0.000022 0.000000 
0.680793 0.000022 0.000000 
0.929583 0.000022 0.000000 
1.269284 0.000022 0.000000 
1.732686 0.000022 0.000000 
-0.284402 0.000039 0.000000 
-0.201379 0.000039 0.000000 
-0.143066 0.000039 0.000000 
-0.101634 0.000039 0.000000 
-0.072197 0.000039 0.000000 
-0.051282 0.000039 0.000000 
-0.036423 0.000039 0.000000 
-0.025865 0.000039 0.000000 
-0.018364 0.000039 0.000000 
-0.013034 0.000039 0.000000 
-0.009247 0.000039 0.000000 
-0.006557 0.000039 0.000000 
-0.004645 0.000039 0.000000 
-0.003287 0.000039 0.000000 
-0.002322 0.000039 0.000000 
-0.001637 0.000039 0.000000 
-0.001150 0.000039 0.000000 
-0.000804 0.000039 0.000000 
-0.000558 0.000039 0.000000 
-0.000383 0.000039 0.000000 
-0.000259 0.000039 0.000000 
-0.000171 0.000039 0.000000 
-0.000108 0.000039 0.000000 
-0.000063 0.000039 0.000000 
-0.000032 0.000039 0.000000 
-0.000009 0.000039 0.000000 
0.000009 0.000039 0.000000 
0.000031 0.000039 0.000000 
0.000061 0.000039 0.000000 
0.000101 0.000039 0.000000 
0.000157 0.000039 0.000000 
0.000232 0.000039 0.000000 
0.000336 0.000039 0.000000 
0.000477 0.000039 0.000000 
0.000669 0.000039 0.000000 
0.000932 0.000039 0.000000 
0.001292 0.000039 0.000000 
0.001782 0.000039 0.000000 
0.002452 0.000039 0.000000 
0.003366 0.000039 0.000000 
0.004614 0.000039 0.000000 
0.006319 0.000039 0.000000 
0.008646 0.000039 0.000000 
0.011824 0.000039 0.000000 
0.016163 0.000039 0.000000 
0.022088 0.000039 0.000000 
0.030177 0.000039 0.000000 
0.041223 0.000039 0.000000 
0.056305 0.000039 0.000000 
0.076898 0.000039 0.000000 
0.105015 0.000039 0.000000 
0.143408 0.000039 0.000000 
0.195829 0.000039 0.000000 
0.267407 0.000039 0.000000 
0.365139 0.000039 0.000000 
0.498585 0.000039 0.000000 
0.680793 0.000039 0.000000 
0.929583 0.000039 0.000000 
1.269284 0.000039 0.000000 
1.732686 0.000039 0.000000 
-0.284402 0.000062 0.000000 
-0.201379 0.000062 0.000000 
-0.143066 0.000062 0.000000 
-0.101634 0.000062 0.000000 
-0.072197 0.000062 0.000000 
-0.051282 0.000062 0.000000 
-0.036423 0.000062 0.000000 
-0.025865 0.000062 0.000000 
-0.018364 0.000062 0.000000 
-0.013034 0.000062 0.000000 
-0.009247 0.000062 0.000000 
-0.006557 0.000062 0.000000 
-0.004645 0.000062 0.000000 
-0.003287 0.000062 0.000000 
-0.002322 0.000062 0.000000 
-0.001637 0.000062 0.000000 
-0.001150 0.000062 0.000000 
-0.000804 0.000062 0.000000 
-0.000558 0.000062 0.000000 
-0.000383 0.000062 0.000000 
-0.000259 0.000062 0.000000 
-0.000171 0.000062 0.000000 
-0.000108 0.000062 0.000000 
-0.000063 0.000062 0.000000 
-0.000032 0.000062 0.000000 
-0.000009 0.000062 0.000000 
0.000009 0.000062 0.000000 
0.000031 0.000062 0.000000 
0.000061 0.000062 0.000000 
0.000101 0.000062 0.000000 
0.000157 0.000062 0.000000 
0.000232 0.000062 0.000000 
0.000336 0.000062 0.000000 
0.000477 0.000062 0.000000 
0.000669 0.000062 0.000000 
0.000932 0.000062 0.000000 
0.001292 0.000062 0.000000 
0.001782 0.000062 0.000000 
0.002452 0.000062 0.000000 
0.003366 0.000062 0.000000 
0.004614 0.000062 0.000000 
0.006319 0.000062 0.000000 
0.008646 0.000062 0.000000 
0.011824 0.000062 0.000000 
0.016163 0.000062 0.000000 
0.022088 0.000062 0.000000 
0.030177 0.000062 0.000000 
0.041223 0.000062 0.000000 
0.056305 0.000062 0.000000 
0.076898 0.000062 0.000000 
0.105015 0.000062 0.000000 
0.143408 0.000062 0.000000 
0.195829 0.000062 0.000000 
0.267407 0.000062 0.000000 
0.365139 0.000062 0.000000 
0.498585 0.000062 0.000000 
0.680793 0.000062 0.000000 
0.929583 0.000062 0.000000 
1.269284 0.000062 0.000000 
1.732686 0.000062 0.000000 
-0.284402 0.000094 0.000000 
-0.201379 0.000094 0.000000 
-0.143066 0.000094 0.000000 
-0.101634 0.000094 0.000000 
-0.072197 0.000094 0.000000 
-0.051282 0.000094 0.000000 
-0.036423 0.000094 0.000000 
-0.025865 0.000094 0.000000 
-0.018364 0.000094 0.000000 
-0.013034 0.000094 0.000000 
-0.009247 0.000094 0.000000 
-0.006557 0.000094 0.000000 
-0.004645 0.000094 0.000000 
-0.003287 0.000094 0.000000 
-0.002322 0.000094 0.000000 
-0.001637 0.000094 0.000000 
-0.001150 0.000094 0.000000 
-0.000804 0.000094 0.000000 
-0.000558 0.000094 0.000000 
-0.000383 0.000094 0.000000 
-0.000259 0.000094 0.000000 
-0.000171 0.000094 0.000000 
-0.000108 0.000094 0.000000 
-0.000063 0.000094 0.000000 
-0.000032 0.000094 0.000000 
-0.000009 0.000094 0.000000 
0.000009 0.000094 0.000000 
0.000031 0.000094 0.000000 
0.000061 0.000094 0.000000 
0.000101 0.000094 0.000000 
0.000157 0.000094 0.000000 
0.000232 0.000094 0.000000 
0.000336 0.000094 0.000000 
0.000477 0.000094 0.000000 
0.000669 0.000094 0.000000 
0.000932 0.000094 0.000000 
0.001292 0.000094 0.000000 
0.001782 0.000094 0.000000 
0.002452 0.000094 0.000000 
0.003366 0.000094 0.000000 
0.004614 0.000094 0.000000 
0.006319 0.000094 0.000000 
0.008646 0.000094 0.000000 
0.011824 0.000094 0.000000 
0.016163 0.000094 0.000000 
0.022088 0.000094 0.000000 
0.030177 0.000094 0.000000 
0.041223 0.000094 0.000000 
0.056305 0.000094 0.000000 
0.076898 0.000094 0.000000 
0.105015 0.000094 0.000000 
0.143408 0.000094 0.000000 
0.195829 0.000094 0.000000 
0.267407 0.000094 0.000000 
0.365139 0.000094 0.000000 
0.498585 0.000094 0.000000 
0.680793 0.000094 0.000000 
0.929583 0.000094 0.000000 
1.269284 0.000094 0.000000 
1.732686 0.000094 0.000000 
-0.284402 0.000138 0.000000 
-0.201379 0.000138 0.000000 
-0.143066 0.000138 0.000000 
-0.101634 0.000138 0.000000 
-0.072197 0.000138 0.000000 
-0.051282 0.000138 0.000000 
-0.036423 0.000138 0.000000 
-0.025865 0.000138 0.000000 
-0.018364 0.000138 0.000000 
-0.013034 0.000138 0.000000 
-0.009247 0.000138 0.000000 
-0.006557 0.000138 0.000000 
-0.004645 0.000138 0.000000 
-0.003287 0.000138 0.000000 
-0.002322 0.000138 0.000000 
-0.001637 0.000138 0.000000 
-0.001150 0.000138 0.000000 
-0.000804 0.000138 0.000000 
-0.000558 0.000138 0.000000 
-0.000383 0.000138 0.000000 
-0.000259 0.000138 0.000000 
-0.000171 0.000138 0.000000 
-0.000108 0.000138 0.000000 
-0.000063 0.000138 0.000000 
-0.000032 0.000138 0.000000 
-0.000009 0.000138 0.000000 
0.000009 0.000138 0.000000 
0.000031 0.000138 0.000000 
0.000061 0.000138 0.000000 
0.000101 0.000138 0.000000 
0.000157 0.000138 0.000000 
0.000232 0.000138 0.000000 
0.000336 0.000138 0.000000 
0.000477 0.000138 0.000000 
0.000669 0.000138 0.000000 
0.000932 0.000138 0.000000 
0.001292 0.000138 0.000000 
0.001782 0.000138 0.000000 
0.002452 0.000138 0.000000 
0.003366 0.000138 0.000000 
0.004614 0.000138 0.000000 
0.006319 0.000138 0.000000 
0.008646 0.000138 0.000000 
0.011824 0.000138 0.000000 
0.016163 0.000138 0.000000 
0.022088 0.000138 0.000000 
0.030177 0.000138 0.000000 
0.041223 0.000138 0.000000 
[...]
POINT_DATA 4174
SCALARS face_weight double
LOOKUP_TABLE default
53227026546.805244
53227026546.805252
53227026546.805244
53227026546.805252
53227026546.805237
53227026546.805244
53227026546.805244
53227026546.805237
53227026546.805237
53227026546.805244
53227026546.805244
53227026546.805244
53227026546.805260
53227026546.805237
53227026546.805244
53227026546.805237
53227026546.805244
53227026546.805252
53227026546.805244
53227026546.805244
53227026546.805237
53227026546.805252
53227026546.805237
53227026546.805244
53227026546.805244
53227026546.805244
53227026546.805237
53227026546.805244
53227026546.805237
53227026546.805252
53227026546.805237
53227026546.805237
53227026546.805252
53227026546.805244
53227026546.805237
53227026546.805237
53227026546.805237
53227026546.805244
53227026546.805244
53227026546.805244
53227026546.805244
53227026546.805244
53227026546.805244
53227026546.805267
53227026546.805252
53227026546.805252
53227026546.805244
53227026546.805237
53227026546.805252
53227026546.805244
53227026546.805244
53227026546.805244
53227026546.805244
53227026546.805244
53227026546.805260
53227026546.805244
53227026546.805237
53227026546.805237
53227026546.805244
53227026546.805244
28549829278.973164
28549829278.973156
28549829278.973160
28549829278.973160
28549829278.973160
28549829278.973156
28549829278.973160
28549829278.973160
28549829278.973152
28549829278.973160
28549829278.973156
28549829278.973156
28549829278.973167
28549829278.973160
28549829278.973156
28549829278.973160
28549829278.973160
28549829278.973156
28549829278.973156
28549829278.973156
28549829278.973160
28549829278.973167
28549829278.973156
28549829278.973156
28549829278.973160
28549829278.973152
28549829278.973156
28549829278.973160
28549829278.973160
28549829278.973156
28549829278.973160
28549829278.973156
28549829278.973160
28549829278.973156
28549829278.973160
28549829278.973156
28549829278.973160
28549829278.973160
28549829278.973156
28549829278.973156
28549829278.973160
28549829278.973160
28549829278.973160
28549829278.973160
28549829278.973160
28549829278.973156
28549829278.973160
28549829278.973160
28549829278.973156
28549829278.973156
28549829278.973156
28549829278.973152
28549829278.973160
28549829278.973156
28549829278.973164
28549829278.973156
28549829278.973160
28549829278.973156
28549829278.973160
28549829278.973160
15313511827.364456
15313511827.364456
15313511827.364458
15313511827.364456
15313511827.364454
15313511827.364456
15313511827.364454
15313511827.364456
15313511827.364454
15313511827.364458
15313511827.364456
15313511827.364456
15313511827.364456
15313511827.364456
15313511827.364458
15313511827.364456
15313511827.364456
15313511827.364456
15313511827.364456
15313511827.364454
15313511827.364458
15313511827.364456
15313511827.364456
15313511827.364456
15313511827.364454
15313511827.364454
15313511827.364456
15313511827.364456
15313511827.364454
15313511827.364456
15313511827.364458
15313511827.364456
15313511827.364456
15313511827.364454
15313511827.364456
15313511827.364458
15313511827.364454
15313511827.364456
15313511827.364452
15313511827.364454
15313511827.364456
15313511827.364456
15313511827.364454
15313511827.364456
15313511827.364454
15313511827.364456
15313511827.364456
15313511827.364456
15313511827.364456
15313511827.364454
15313511827.364458
15313511827.364456
15313511827.364456
15313511827.364456
15313511827.364456
15313511827.364456
15313511827.364458
15313511827.364454
15313511827.364456
15313511827.364456
8213837350.099257
8213837350.099257
8213837350.099256
8213837350.099257
8213837350.099257
8213837350.099257
8213837350.099256
8213837350.099257
8213837350.099257
8213837350.099257
8213837350.099257
8213837350.099257
8213837350.099259
8213837350.099257
8213837350.099257
8213837350.099257
8213837350.099257
8213837350.099257
8213837350.099256
8213837350.099257
8213837350.099257
8213837350.099259
8213837350.099257
8213837350.099257
8213837350.099257
8213837350.099257
8213837350.099257
8213837350.099256
8213837350.099257
8213837350.099256
8213837350.099257
8213837350.099256
8213837350.099257
8213837350.099257
8213837350.099257
8213837350.099257
8213837350.099257
8213837350.099257
8213837350.099257
8213837350.099257
8213837350.099257
8213837350.099256
8213837350.099255
8213837350.099258
8213837350.099257
8213837350.099256
8213837350.099257
8213837350.099256
8213837350.099257
8213837350.099257
8213837350.099257
8213837350.099257
8213837350.099256
8213837350.099257
8213837350.099257
8213837350.099257
8213837350.099257
8213837350.099257
8213837350.099257
8213837350.099257
4405725025.003201
4405725025.003201
4405725025.003201
4405725025.003201
4405725025.003201
4405725025.003201
4405725025.003201
4405725025.003201
4405725025.003201
4405725025.003201
4405725025.003201
4405725025.003201
4405725025.003201
4405725025.003201
4405725025.003201
4405725025.003201
4405725025.003201
4405725025.003201
4405725025.003201
4405725025.003201
4405725025.003201
4405725025.003201
4405725025.003201
4405725025.003201
4405725025.003201
4405725025.003201
4405725025.003201
4405725025.003201
4405725025.003201
4405725025.003201
4405725025.003201
4405725025.003201
4405725025.003201
4405725025.003201
4405725025.003201
4405725025.003201
4405725025.003201
4405725025.003201
4405725025.003201
4405725025.003201
4405725025.003201
4405725025.003201
4405725025.003201
4405725025.003201
4405725025.003201
4405725025.003201
4405725025.003201
4405725025.003201
4405725025.003201
4405725025.003201
4405725025.003201
4405725025.003201
4405725025.003201
4405725025.003201
4405725025.003201
4405725025.003201
4405725025.003201
4405725025.003201
4405725025.003201
4405725025.003201
2363135877.020463
2363135877.020462
2363135877.020463
2363135877.020462
2363135877.020462
2363135877.020462
2363135877.020463
2363135877.020462
2363135877.020462
2363135877.020462
2363135877.020462
2363135877.020462
2363135877.020463
2363135877.020462
2363135877.020462
2363135877.020463
2363135877.020462
2363135877.020462
2363135877.020462
2363135877.020462
2363135877.020462
2363135877.020463
2363135877.020462
2363135877.020463
2363135877.020462
2363135877.020462
2363135877.020462
2363135877.020462
2363135877.020462
2363135877.020462
2363135877.020462
2363135877.020462
2363135877.020462
2363135877.020462
2363135877.020462
2363135877.020463
2363135877.020463
2363135877.020462
2363135877.020462
2363135877.020462
2363135877.020462
2363135877.020462
2363135877.020462
2363135877.020463
2363135877.020462
2363135877.020463
2363135877.020462
2363135877.020462
2363135877.020462
2363135877.020462
2363135877.020462
2363135877.020463
2363135877.020462
2363135877.020462
2363135877.020463
2363135877.020462
2363135877.020462
2363135877.020463
2363135877.020462
2363135877.020462
1267535081.482801
1267535081.482801
1267535081.482801
1267535081.482801
1267535081.482801
1267535081.482801
1267535081.482801
1267535081.482801
1267535081.482801
1267535081.482801
1267535081.482801
1267535081.482801
1267535081.482801
1267535081.482801
1267535081.482801
1267535081.482801
1267535081.482801
1267535081.482801
1267535081.482801
1267535081.482801
1267535081.482801
1267535081.482801
1267535081.482801
1267535081.482801
1267535081.482801
1267535081.482801
1267535081.482801
1267535081.482801
1267535081.482801
1267535081.482801
1267535081.482801
1267535081.482801
1267535081.482801
1267535081.482801
1267535081.482801
1267535081.482801
1267535081.482801
1267535081.482801
1267535081.482801
1267535081.482801
1267535081.482801
1267535081.482801
1267535081.482801
1267535081.482801
1267535081.482801
1267535081.482801
1267535081.482801
1267535081.482801
1267535081.482801
1267535081.482801
1267535081.482801
1267535081.482801
1267535081.482801
1267535081.482801
1267535081.482801
1267535081.482801
1267535081.482801
1267535081.482801
1267535081.482801
1267535081.482801
679878456.120736
679878456.120736
679878456.120736
679878456.120736
679878456.120736
679878456.120736
679878456.120736
679878456.120736
679878456.120736
679878456.120736
679878456.120736
679878456.120736
679878456.120736
679878456.120736
679878456.120736
679878456.120736
679878456.120736
679878456.120736
679878456.120736
679878456.120736
679878456.120736
679878456.120736
679878456.120736
679878456.120736
679878456.120736
679878456.120736
679878456.120736
679878456.120736
679878456.120736
679878456.120736
679878456.120736
679878456.120736
679878456.120736
679878456.120736
679878456.120736
679878456.120736
679878456.120736
679878456.120736
679878456.120736
679878456.120736
679878456.120736
679878456.120736
679878456.120736
679878456.120736
679878456.120736
679878456.120736
679878456.120736
679878456.120736
679878456.120736
679878456.120736
679878456.120736
679878456.120736
679878456.120736
679878456.120736
679878456.120736
679878456.120736
679878456.120736
679878456.120736
679878456.120736
679878456.120736
364672131.747888
364672131.747888
364672131.747888
364672131.747888
364672131.747888
364672131.747888
364672131.747888
364672131.747888
364672131.747888
364672131.747888
364672131.747888
364672131.747888
364672131.747888
364672131.747888
364672131.747888
364672131.747888
364672131.747888
364672131.747888
364672131.747888
364672131.747888
364672131.747888
364672131.747888
364672131.747888
364672131.747888
364672131.747888
364672131.747888
364672131.747888
364672131.747888
364672131.747888
364672131.747888
364672131.747888
364672131.747888
364672131.747888
364672131.747888
364672131.747888
364672131.747888
364672131.747888
364672131.747888
364672131.747888
364672131.747888
364672131.747888
364672131.747888
364672131.747888
364672131.747888
364672131.747888
364672131.747888
364672131.747888
364672131.747888
364672131.747888
364672131.747888
364672131.747888
364672131.747888
364672131.747888
364672131.747888
364672131.747888
364672131.747888
364672131.747888
364672131.747888
364672131.747888
364672131.747888
195602263.817868
195602263.817868
195602263.817868
195602263.817868
195602263.817868
195602263.817868
195602263.817868
195602263.817868
195602263.817868
195602263.817868
195602263.817868
195602263.817868
195602263.817868
195602263.817868
195602263.817868
195602263.817868
195602263.817868
195602263.817868
195602263.817868
195602263.817868
195602263.817868
195602263.817868
195602263.817868
195602263.817868
195602263.817868
195602263.817868
195602263.817868
195602263.817868
195602263.817868
195602263.817868
195602263.817868
195602263.817868
195602263.817868
195602263.817868
195602263.817868
195602263.817868
195602263.817868
195602263.817868
195602263.817868
195602263.817868
195602263.817868
195602263.817868
195602263.817868
195602263.817868
195602263.817868
195602263.817868
195602263.817868
195602263.817868
195602263.817868
195602263.817868
195602263.817868
195602263.817868
195602263.817868
195602263.817868
195602263.817868
195602263.817868
195602263.817868
195602263.817868
195602263.817868
195602263.817868
104916832.780030
104916832.780030
104916832.780030
104916832.780030
104916832.780030
104916832.780030
104916832.780030
104916832.780030
104916832.780030
104916832.780030
104916832.780030
104916832.780030
104916832.780030
104916832.780030
104916832.780030
104916832.780030
104916832.780030
104916832.780030
104916832.780030
104916832.780030
104916832.780030
104916832.780030
104916832.780030
104916832.780030
104916832.780030
104916832.780030
104916832.780030
104916832.780030
104916832.780030
104916832.780030
104916832.780030
104916832.780030
104916832.780030
104916832.780030
104916832.780030
104916832.780030
104916832.780030
104916832.780030
104916832.780030
104916832.780030
104916832.780030
104916832.780030
104916832.780030
104916832.780030
104916832.780030
104916832.780030
104916832.780030
104916832.780030
104916832.780030
104916832.780030
104916832.780030
104916832.780030
104916832.780030
104916832.780030
104916832.780030
104916832.780030
104916832.780030
104916832.780030
104916832.780030
104916832.780030
56275124.845126
56275124.845126
56275124.845126
56275124.845126
56275124.845126
56275124.845126
56275124.845126
56275124.845126
56275124.845126
56275124.845126
56275124.845126
56275124.845126
56275124.845126
56275124.845126
56275124.845126
56275124.845126
56275124.845126
56275124.845126
56275124.845126
56275124.845126
56275124.845126
56275124.845126
56275124.845126
56275124.845126
56275124.845126
56275124.845126
56275124.845126
56275124.845126
56275124.845126
56275124.845126
56275124.845126
56275124.845126
56275124.845126
56275124.845126
56275124.845126
56275124.845126
56275124.845126
56275124.845126
56275124.845126
56275124.845126
56275124.845126
56275124.845126
56275124.845126
56275124.845126
56275124.845126
56275124.845126
56275124.845126
56275124.845126
56275124.845126
56275124.845126
56275124.845126
56275124.845126
56275124.845126
56275124.845126
56275124.845126
56275124.845126
56275124.845126
56275124.845126
56275124.845126
56275124.845126
30184762.624174
30184762.624174
30184762.624174
30184762.624174
30184762.624174
30184762.624174
30184762.624174
30184762.624174
30184762.624174
30184762.624174
30184762.624174
30184762.624174
30184762.624174
30184762.624174
30184762.624174
30184762.624174
30184762.624174
30184762.624174
30184762.624174
30184762.624174
30184762.624174
30184762.624174
30184762.624174
30184762.624174
30184762.624174
30184762.624174
30184762.624174
30184762.624174
30184762.624174
30184762.624174
30184762.624174
30184762.624174
30184762.624174
30184762.624174
30184762.624174
30184762.624174
30184762.624174
30184762.624174
30184762.624174
30184762.624174
30184762.624174
30184762.624174
30184762.624174
30184762.624174
30184762.624174
30184762.624174
30184762.624174
30184762.624174
30184762.624174
30184762.624174
30184762.624174
30184762.624174
30184762.624174
30184762.624174
30184762.624174
30184762.624174
30184762.624174
30184762.624174
30184762.624174
30184762.624174
16190455.274620
16190455.274620
16190455.274620
16190455.274620
16190455.274620
16190455.274620
16190455.274620
16190455.274620
16190455.274620
16190455.274620
16190455.274620
16190455.274620
16190455.274620
16190455.274620
16190455.274620
16190455.274620
16190455.274620
16190455.274620
16190455.274620
16190455.274620
16190455.274620
16190455.274620
16190455.274620
16190455.274620
16190455.274620
16190455.274620
16190455.274620
16190455.274620
16190455.274620
16190455.274620
16190455.274620
16190455.274620
16190455.274620
16190455.274620
16190455.274620
16190455.274620
16190455.274620
16190455.274620
16190455.274620
16190455.274620
16190455.274620
16190455.274620
16190455.274620
16190455.274620
16190455.274620
16190455.274620
16190455.274620
16190455.274620
16190455.274620
16190455.274620
16190455.274620
16190455.274620
16190455.274620
16190455.274620
16190455.274620
16190455.274620
16190455.274620
16190455.274620
16190455.274620
16190455.274620
8684210.817468
8684210.817468
8684210.817468
8684210.817468
8684210.817468
8684210.817468
8684210.817468
8684210.817468
8684210.817468
8684210.817468
8684210.817468
8684210.817468
8684210.817468
8684210.817468
8684210.817468
8684210.817468
8684210.817468
8684210.817468
8684210.817468
8684210.817468
8684210.817468
8684210.817468
8684210.817468
8684210.817468
8684210.817468
8684210.817468
8684210.817468
8684210.817468
8684210.817468
8684210.817468
8684210.817468
8684210.817468
8684210.817468
8684210.817468
8684210.817468
8684210.817468
8684210.817468
8684210.817468
8684210.817468
8684210.817468
8684210.817468
8684210.817468
8684210.817468
8684210.817468
8684210.817468
8684210.817468
8684210.817468
8684210.817468
8684210.817468
8684210.817468
8684210.817468
8684210.817468
8684210.817468
8684210.817468
8684210.817468
8684210.817468
8684210.817468
8684210.817468
8684210.817468
8684210.817468
4658023.268153
4658023.268153
4658023.268153
4658023.268153
4658023.268153
4658023.268153
4658023.268153
4658023.268153
4658023.268153
4658023.268153
4658023.268153
4658023.268153
4658023.268153
4658023.268153
4658023.268153
4658023.268153
4658023.268153
4658023.268153
4658023.268153
4658023.268153
4658023.268153
4658023.268153
4658023.268153
4658023.268153
4658023.268153
4658023.268153
4658023.268153
4658023.268153
4658023.268153
4658023.268153
4658023.268153
4658023.268153
4658023.268153
4658023.268153
4658023.268153
4658023.268153
4658023.268153
4658023.268153
4658023.268153
4658023.268153
4658023.268153
4658023.268153
4658023.268153
4658023.268153
4658023.268153
4658023.268153
4658023.268153
4658023.268153
4658023.268153
4658023.268153
4658023.268153
4658023.268153
4658023.268153
4658023.268153
4658023.268153
4658023.268153
4658023.268153
4658023.268153
4658023.268153
4658023.268153
2498463.163053
2498463.163053
2498463.163053
2498463.163053
2498463.163053
2498463.163053
2498463.163053
2498463.163053
2498463.163053
2498463.163053
2498463.163053
2498463.163053
2498463.163053
2498463.163053
2498463.163053
2498463.163053
2498463.163053
2498463.163053
2498463.163053
2498463.163053
2498463.163053
2498463.163053
2498463.163053
2498463.163053
2498463.163053
2498463.163053
2498463.163053
2498463.163053
2498463.163053
2498463.163053
2498463.163053
2498463.163053
2498463.163053
2498463.163053
2498463.163053
2498463.163053
2498463.163053
2498463.163053
2498463.163053
2498463.163053
2498463.163053
2498463.163053
2498463.163053
2498463.163053
2498463.163053
2498463.163053
2498463.163053
2498463.163053
2498463.163053
2498463.163053
2498463.163053
2498463.163053
2498463.163053
2498463.163053
2498463.163053
2498463.163053
2498463.163053
2498463.163053
2498463.163053
2498463.163053
1340121.722578
1340121.722578
1340121.722578
1340121.722578
1340121.722578
1340121.722578
1340121.722578
1340121.722578
1340121.722578
1340121.722578
1340121.722578
1340121.722578
1340121.722578
1340121.722578
1340121.722578
1340121.722578
1340121.722578
1340121.722578
1340121.722578
1340121.722578
1340121.722578
1340121.722578
1340121.722578
1340121.722578
1340121.722578
1340121.722578
1340121.722578
1340121.722578
1340121.722578
1340121.722578
1340121.722578
1340121.722578
1340121.722578
1340121.722578
1340121.722578
1340121.722578
1340121.722578
1340121.722578
1340121.722578
1340121.722578
1340121.722578
1340121.722578
1340121.722578
1340121.722578
1340121.722578
1340121.722578
1340121.722578
1340121.722578
1340121.722578
1340121.722578
1340121.722578
1340121.722578
1340121.722578
1340121.722578
1340121.722578
1340121.722578
1340121.722578
1340121.722578
1340121.722578
1340121.722578
718812.371768
718812.371768
718812.371768
718812.371768
718812.371768
718812.371768
718812.371768
718812.371768
718812.371768
718812.371768
718812.371768
718812.371768
718812.371768
718812.371768
718812.371768
718812.371768
718812.371768
718812.371768
718812.371768
718812.371768
718812.371768
718812.371768
718812.371768
718812.371768
718812.371768
718812.371768
718812.371768
718812.371768
718812.371768
718812.371768
718812.371768
718812.371768
718812.371768
718812.371768
718812.371768
718812.371768
718812.371768
718812.371768
718812.371768
718812.371768
718812.371768
718812.371768
718812.371768
718812.371768
718812.371768
718812.371768
718812.371768
718812.371768
718812.371768
718812.371768
718812.371768
718812.371768
718812.371768
718812.371768
718812.371768
718812.371768
718812.371768
718812.371768
718812.371768
718812.371768
385555.444039
385555.444039
385555.444039
385555.444039
385555.444039
385555.444039
385555.444039
385555.444039
385555.444039
385555.444039
385555.444039
385555.444039
385555.444039
385555.444039
385555.444039
385555.444039
385555.444039
385555.444039
385555.444039
385555.444039
385555.444039
385555.444039
385555.444039
385555.444039
385555.444039
385555.444039
385555.444039
385555.444039
385555.444039
385555.444039
385555.444039
385555.444039
385555.444039
385555.444039
385555.444039
385555.444039
385555.444039
385555.444039
385555.444039
385555.444039
385555.444039
385555.444039
385555.444039
385555.444039
385555.444039
385555.444039
385555.444039
385555.444039
385555.444039
385555.444039
385555.444039
385555.444039
385555.444039
385555.444039
385555.444039
385555.444039